# ODT 1.0
# Table Start
# Title: mmArchive Data Table, Tue May 20 20:18:50 EDT 2025
# Columns: {Oxs_CGEvolve:evolver:Max mxHxm} {Oxs_CGEvolve:evolver:Total energy} {Oxs_CGEvolve:evolver:Delta E} {Oxs_CGEvolve:evolver:Bracket count} {Oxs_CGEvolve:evolver:Line min count} {Oxs_CGEvolve:evolver:Conjugate cycle count} {Oxs_CGEvolve:evolver:Cycle count} {Oxs_CGEvolve:evolver:Cycle sub count} {Oxs_CGEvolve:evolver:Energy calc count} Oxs_UniformExchange:exchange:Energy {Oxs_UniformExchange:exchange:Max Spin Ang} {Oxs_UniformExchange:exchange:Stage Max Spin Ang} {Oxs_UniformExchange:exchange:Run Max Spin Ang} Oxs_Demag:demag:Energy Oxs_UniaxialAnisotropy:uniaxialanisotropy:Energy Oxs_UZeeman:hysteresis:Energy Oxs_UZeeman:hysteresis:B Oxs_UZeeman:hysteresis:Bx Oxs_UZeeman:hysteresis:By Oxs_UZeeman:hysteresis:Bz Oxs_MinDriver::Iteration {Oxs_MinDriver::Stage iteration} Oxs_MinDriver::Stage Oxs_MinDriver::mx    Oxs_MinDriver::my    Oxs_MinDriver::mz   
# Units:                 A/m                                 J                                J                                 {}                                   {}                                        {}                                      {}                                   {}                                      {}                                     J                                      deg                                            deg                                              deg                                 J                                   J                                       J                          mT                       mT                        mT                        mT                        {}                           {}                         {}                 {}                   {}                   {}           
                  0.050925644838800001              -1.3860590036499999e-015               0                                 5805                                 3151                                      490                                     4811                                 32                                      8957                                  6.2270522784500001e-018                     26.414688505800001                             179.999684376                                    179.999684376                       1.7875029127699999e-016                 5.9604740147999997e-019                   -1.5716323946e-015           50                      -50                        0                         0                         8140                         8140                       0                   -0.98227024662600004 -4.4267640178399998e-010 -1.0426254448199999e-014
                  0.086551738077400006              -1.22903581228e-015                0                                 6013                                 3301                                      491                                     4976                                 164                                     9316                                  6.3499447286299997e-018                     26.583674447500002                             27.757098695500002                               179.999684376                       1.7585434032300001e-016                 6.50823130449e-019                    -1.41189092046e-015          45                      -45                        0                         0                         8445                         304                        1                   -0.98047980587700001  2.7893332320300001e-009  5.4120355343900002e-016
                  0.084712789649299999              -1.0723195962299999e-015               0                                 6232                                 3459                                      492                                     5149                                 172                                     9694                                  6.48241784631e-018                      26.880026240799999                             27.932355698999999                               179.999684376                       1.7286752989900001e-016                 7.1305797992400002e-019                   -1.25238260195e-015          40                      -40                        0                         0                         8771                         325                        2                   -0.97842390777599997  2.6809591990800002e-009 -7.1178579673899997e-015
                  0.088280355652600007              -9.1595767367099994e-016               0                                 6454                                 3627                                      493                                     5329                                 179                                     10085                                 6.63010716787e-018                      27.260668131199999                             28.342153475                                     179.999684376                       1.6979138639700001e-016                 7.84430652505e-019                    -1.09316359789e-015          35                      -35                        0                         0                         9117                         345                        3                   -0.97603892668600001  2.6208442802000001e-009  4.1637711547099997e-015
                  0.085653079414300004              -7.6000922117700003e-016               0                                 6700                                 3802                                      494                                     5527                                 197                                     10507                                 6.8009893458200003e-018                     27.556808197700001                             28.756642233200001                               179.999684376                       1.6663188928099999e-016                 8.6717299841899995e-019                   -9.3430927280100006e-016         30                      -30                        0                         0                         9481                         363                        4                   -0.97323882583499999  2.6092069736399999e-009  4.62257667095e-015 
                  0.098580889974499999              -6.0454967524899999e-016               0                                 6951                                 3984                                      495                                     5728                                 200                                     10941                                 7.0066298868799995e-018                     27.7587967105                                  29.086598218900001                               179.999684376                       1.6340261297200001e-016                 9.6432589149699997e-019                   -7.75923243999e-016          25                      -25                        0                         0                         9861                         379                        5                   -0.96990405499800003  2.67432643673e-009  -2.0406550902399999e-016
                  0.0914564189049                  -4.4967745037900005e-016               0                                 7220                                 4191                                      496                                     5947                                 218                                     11418                                 7.2643361621599996e-018                     27.854968985999999                             29.325881358099998                               179.999684376                       1.60130327608e-016                  1.0801567537599999e-018                   -6.1815227090399997e-016         20                      -20                        0                         0                         10272                        410                        6                   -0.96586292328699996  2.8668032730500002e-009  1.1968346370799999e-015
                  0.097822018409100001              -2.9552466654199999e-016              -9.8607613152600004e-032               7518                                 4399                                      497                                     6190                                 242                                     11925                                 7.6010750129999996e-018                     27.830600881199999                             29.458613666200002                               179.999684376                       1.5686544062500001e-016                 1.2208792700999999e-018                   -4.61212061449e-016          15                      -15                        0                         0                         10721                        448                        7                   -0.96085846135300002  3.2395665963100002e-009 -6.2073177105e-016  
                  0.091283389527700001              -1.4227528574499999e-016              -4.9303806576300002e-032               7857                                 4648                                      498                                     6469                                 278                                     12514                                 8.0611537710399994e-018                     27.666225532199999                             29.473121655500002                               179.999684376                       1.5370280195499999e-016                 1.39597837684e-018                    -3.0543521984799998e-016         10                      -10                        0                         0                         11240                        518                        8                   -0.95448506202500005  3.9188232727600004e-009  1.4762495993600001e-015
                  0.089033192400699998               9.8018388982299998e-018              -4.16000867988e-032                8254                                 4933                                      499                                     6794                                 324                                     13197                                 8.7227613167599999e-018                     27.7809669263                                  29.3489553872                                    179.999684376                       1.5082701629200001e-016                 1.62087387335e-018                    -1.51368812584e-016          5                       -5                         0                         0                         11837                        596                        9                   -0.946055078652       6.1086401399999999e-009  1.6775808035199999e-015
                  0.090903303611400005               1.4109924018300001e-016               0                                 12751                                8510                                      507                                     11013                                3006                                    21272                                 8.4797747639700007e-018                     26.288871475800001                             78.500598813899998                               179.999684376                       1.2887874048099999e-016                 3.7407249384999999e-018                    0                           0                        0                         0                         0                         19596                        7758                       10                  -0.86968758496999998  1.56034540408e-010  -5.6343504183999996e-015
                  0.087972356577199998               2.7147696447499998e-016               0                                 16909                                10446                                     511                                     14749                                954                                     27367                                 1.71687486683e-017                      41.239069841099997                             58.158171055300002                               179.999684376                       1.3358272487500001e-016                 7.4701078147300005e-018                    1.13255383117e-016          5                        5                         0                         0                         25244                        5647                       11                  -0.70784614447899996 -2.17614072748e-010   2.0680683519499999e-015
                  0.099261582893600001              -5.6331709174800003e-017               0                                 19892                                12634                                     613                                     17432                                1630                                    32539                                 3.9417390876500002e-017                     163.01703141900001                             179.99859944900001                               179.999684376                       1.1988840871800001e-016                 4.8978698017200002e-018                   -2.2053537857099999e-016         10                       10                        0                         0                         30115                        4870                       12                   0.68917305803499995  2.1122256992400001e-012  2.32229772337e-014 
                  0.059337949280200003              -2.9977807350800002e-016              -4.9303806576300002e-032               21328                                13608                                     679                                     18602                                378                                     34950                                 6.2727077574800001e-018                     28.1411264089                                  179.91458949700001                               179.999684376                       1.46425856647e-016                  1.6803015246299999e-018                   -4.5415693943699996e-016         15                       15                        0                         0                         32233                        2117                       13                   0.94616029049299999  5.3824313683400002e-012  8.5421419498700005e-015
                  0.097743714982300001              -4.5195790379900003e-016              -9.8607613152600004e-032               21726                                13896                                     680                                     18935                                332                                     35637                                 6.1368464841299998e-018                     28.832829529600001                             28.932730550199999                               179.999684376                       1.5206102347300001e-016                 1.40750652375e-018                    -6.1156328027999999e-016         20                       20                        0                         0                         32839                        605                        14                   0.95556762543700002  4.4151442125399998e-015 -4.7768335207400002e-016
                  0.096947393222600001              -6.0542844545100001e-016              -9.8607613152600004e-032               22068                                14142                                     681                                     19217                                281                                     36226                                 6.0612280443599998e-018                     28.889751145799998                             29.173845072700001                               179.999684376                       1.57298138656e-016                  1.2033756126000001e-018                   -7.6999118776499997e-016         25                       25                        0                         0                         33360                        520                        15                   0.96248898470599997  3.976165317e-015    -1.6344041796399999e-015
                  0.094880493275400005              -7.5986945355600003e-016               0                                 22371                                14371                                     682                                     19469                                251                                     36759                                 6.0133662575599998e-018                     29.144807010000001                             29.268958746799999                               179.999684376                       1.62166937614e-016                  1.0443583498999999e-018                   -9.2909411577799999e-016         30                       30                        0                         0                         33834                        473                        16                   0.96780637060200003 -4.8266723752000003e-015 -4.7505101974800003e-015
                  0.093009692612700007              -9.1506836914399993e-016               0                                 22682                                14593                                     683                                     19721                                251                                     37293                                 5.9756499038799999e-018                     28.942869288200001                             29.3141581241                                    179.999684376                       1.6671083675500001e-016                 9.1659044887400005e-019                   -1.0886714462499999e-015         35                       35                        0                         0                         34290                        455                        17                   0.97202807701100002  7.3914648964999996e-015 -2.8777380066500001e-015
                  0.083715558609699994              -1.07087715843e-015               -1.97215226305e-031                22965                                14801                                     684                                     19954                                232                                     37785                                 5.9373995387799999e-018                     29.024693444099999                             29.129767319399999                               179.999684376                       1.7097924182600001e-016                 8.11213795151e-019                    -1.24860501359e-015          40                       40                        0                         0                         34720                        429                        18                   0.97547266687099998 -5.7219527661800003e-015  4.6205634134800004e-015
                  0.098988343751800004              -1.22719025509e-015               -1.97215226305e-031                23334                                15061                                     685                                     20257                                302                                     38415                                 5.8907504608900002e-018                     28.7956033002                                  29.024693444099999                               179.999684376                       1.75046870592e-016                  7.2171892693200002e-019                   -1.40884959507e-015          45                       45                        0                         0                         35280                        559                        19                   0.97836777435699995  5.8347359299699996e-016 -4.7186695155699998e-016
                  0.065531438789500004              -1.3860590036499999e-015               0                                 25217                                16089                                     693                                     21936                                32                                      41327                                 6.2270518550400002e-018                     26.4146504695                                  41.3222159711                                    179.999684376                       1.78750289477e-016                  5.9604744920099999e-019                   -1.5716323924300001e-015         50                       50                        0                         0                         37965                        2684                       20                   0.98227024526700002  2.68770818366e-014  -2.49536387855e-015 
                  0.066191651723200004              -1.22903581228e-015                0                                 25426                                16244                                     694                                     22105                                168                                     41692                                 6.3499448472699998e-018                     26.583622120499999                             27.757097829700001                               179.999684376                       1.75854341079e-016                  6.5082311100300004e-019                   -1.41189092132e-015          45                       45                        0                         0                         38282                        316                        21                   0.98047980647099997 -9.5074453274700005e-013 -8.8004962890399999e-016
                  0.089697371819899993              -1.0723195962299999e-015               0                                 25632                                16403                                     695                                     22274                                168                                     42058                                 6.4824176825900003e-018                     26.8799662847                                  27.932375054200001                               179.999684376                       1.7286752814100001e-016                 7.1305802824000002e-019                   -1.2523826000799999e-015         40                       40                        0                         0                         38596                        313                        22                   0.97842390631300002 -6.7102333414400003e-013 -4.8871297622100004e-015
                  0.097337901309700006              -9.1595767367099994e-016              -1.97215226305e-031                25862                                16557                                     696                                     22455                                180                                     42443                                 6.6301071484299998e-018                     27.260633173599999                             28.338526744399999                               179.999684376                       1.6979138589599999e-016                 7.8443066675900001e-019                   -1.09316359738e-015          35                       35                        0                         0                         38916                        319                        23                   0.97603892623400001 -2.6452693971800001e-012  1.0272669896899999e-015
                  0.060709907186999999              -7.6000922117700003e-016               0                                 26098                                16739                                     697                                     22650                                194                                     42862                                 6.8009892630900001e-018                     27.556795939600001                             28.756157042600002                               179.999684376                       1.6663188924899999e-016                 8.6717300219499996e-019                   -9.3430927269099991e-016         30                       30                        0                         0                         39289                        372                        24                   0.97323882571999998 -2.4222449981600002e-012 -2.3074062482900001e-015
                  0.098722316144799996              -6.0454967524899999e-016              -2.9582283945799998e-031               26355                                16924                                     698                                     22855                                204                                     43305                                 7.0066299159700003e-018                     27.7587878776                                  29.089923261599999                               179.999684376                       1.63402612888e-016                  9.6432589301200002e-019                   -7.7592324394599999e-016         25                       25                        0                         0                         39673                        383                        25                   0.96990405493200005 -3.4660887206e-012   -7.26526923245e-016 
                  0.097171441736399994              -4.4967745037900005e-016               0                                 26631                                17127                                     699                                     23077                                221                                     43785                                 7.2643361831600007e-018                     27.854938245500001                             29.323126368099999                               179.999684376                       1.6013032753399999e-016                 1.0801567563299999e-018                   -6.1815227085300001e-016         20                       20                        0                         0                         40088                        414                        26                   0.96586292320800005 -1.40258458967e-011   3.06902802549e-016 
                  0.097225107471700004              -2.9552466654199999e-016              -1.97215226305e-031                26922                                17341                                     700                                     23315                                237                                     44291                                 7.60107494678e-018                      27.830544057400001                             29.460036542000001                               179.999684376                       1.5686543975700001e-016                 1.22087932722e-018                    -4.6121206057300004e-016         15                       15                        0                         0                         40535                        446                        27                   0.960858459527      -7.12493634783e-012  -1.61396746989e-016 
                  0.094137671151600003              -1.4227528574499999e-016              -7.3955709864499996e-032               27246                                17590                                     701                                     23590                                274                                     44865                                 8.0611537852800003e-018                     27.666131287799999                             29.4720212157                                    179.999684376                       1.5370280202699999e-016                 1.3959783698800001e-018                   -3.0543521992799999e-016         10                       10                        0                         0                         41056                        520                        28                   0.95448506227399998 -5.6661384156899999e-011 -2.15630279854e-017 
                  0.078507211994900003               9.8018388982500002e-018              -3.5437110976699998e-032               27635                                17878                                     702                                     23912                                321                                     45543                                 8.7227614978299999e-018                     27.780813696399999                             29.3480242244                                    179.999684376                       1.5082701661e-016                   1.6208737946299999e-018                   -1.5136881300500001e-016         5                        5                         0                         0                         41661                        604                        29                   0.94605508127899995 -9.6322298521400005e-011  2.9582988645400001e-016
                  0.090190788311399997               1.6028615498700001e-016              -4.9303806576300002e-032               28103                                18203                                     703                                     24301                                388                                     46337                                 9.7387315646499997e-018                     28.062590629500001                             29.826466118599999                               179.999684376                       1.48624452788e-016                  1.9229706343999999e-018                    0                           0                        0                         0                         0                         42367                        705                        30                   0.93427721132999997  1.8461987779599999e-010  1.0963427485e-015  