# ODT 1.0
# Table Start
# Title: mmArchive Data Table, Mon Jun 02 19:55:29 EDT 2025
# Columns: {Oxs_CGEvolve:evolver:Max mxHxm} {Oxs_CGEvolve:evolver:Total energy} {Oxs_CGEvolve:evolver:Delta E} {Oxs_CGEvolve:evolver:Bracket count} {Oxs_CGEvolve:evolver:Line min count} {Oxs_CGEvolve:evolver:Conjugate cycle count} {Oxs_CGEvolve:evolver:Cycle count} {Oxs_CGEvolve:evolver:Cycle sub count} {Oxs_CGEvolve:evolver:Energy calc count} Oxs_UniformExchange:exchange:Energy {Oxs_UniformExchange:exchange:Max Spin Ang} {Oxs_UniformExchange:exchange:Stage Max Spin Ang} {Oxs_UniformExchange:exchange:Run Max Spin Ang} Oxs_TwoSurfaceExchange:rkky:Energy Oxs_UniaxialAnisotropy:uniaxialanisotropy:Energy Oxs_Demag:demag:Energy Oxs_DMI_Cnv_z:dmi:Energy Oxs_MinDriver::Iteration {Oxs_MinDriver::Stage iteration} Oxs_MinDriver::Stage Oxs_MinDriver::mx    Oxs_MinDriver::my    Oxs_MinDriver::mz   
# Units:                 A/m                                 J                                J                                 {}                                   {}                                        {}                                      {}                                   {}                                      {}                                     J                                      deg                                            deg                                              deg                                       J                                         J                                   J                       J                        {}                           {}                         {}                 {}                   {}                   {}           
                  0.099099570518299998              -5.9692496089399996e-17               0                                 882                                  603                                       81                                      743                                  253                                     1486                                  1.3660651061199999e-17                     24.230050253200002                             180                                              180                                      -8.4696925035799999e-17                       1.1077713578399999e-17                 6.9551975277800005e-18    -6.6891332209500004e-18      1363                         1363                       0                    1.5934883103399999e-15 -5.2384556225899997e-18  0.012060463718800001
# Table End
