//mumax 3.10 [windows_amd64 go1.11.6(gc) CUDA-11.0]
//GPU info: NVIDIA GeForce RTX 4060(8187MB), CUDA Driver 12.9, cc=8.9, using cc=80 PTX
//(c) Arne Vansteenkiste, Dynamat LAB, Ghent University, Belgium
//This is free software without any warranty. See license.txt
//********************************************************************//
//  If you use mumax in any work or publication,                      //
//  we kindly ask you to cite the references in references.bib        //
//********************************************************************//
//output directory: skyrmion.out/
OutputFormat = OVF2_BINARY
SetGridSize(20, 20, 2)
SetCellSize(5e-09, 5e-09, 5e-09)
m.LoadFile("O:/UNI/maestria_2025/micromagnetics/notes/notebooks/skyrmion/drive-0/m0.omf")
Msat.setRegion(255, 0.0)
Msat.setregion(0, 1100000.0)
regions.LoadFile("O:/UNI/maestria_2025/micromagnetics/notes/notebooks/skyrmion/drive-0/mumax3_regions.omf")
Aex = 1.6e-11
tableadd(E_exch)
Dind = -0.004
Ku1 = 510000.0
anisU = vector(0, 0, 1)
tableadd(E_anis)
enabledemag = true
tableadd(E_demag)
B_ext.add(LoadFile("O:/UNI/maestria_2025/micromagnetics/notes/notebooks/skyrmion/drive-0/B_ext.ovf"), 1)
tableadd(E_Zeeman)
tableadd(E_total)
tableadd(dt)
tableadd(maxtorque)
minimize()
save(m_full)
tablesave()
//********************************************************************//
//Please cite the following references, relevant for your simulation. //
//See bibtex file in output folder for justification.                 //
//********************************************************************//
//   * Vansteenkiste et al., AIP Adv. 4, 107133 (2014).
//   * Exl et al., J. Appl. Phys. 115, 17D118 (2014).
//   * Mulkers et al., Phys. Rev. B 95, 144401 (2017).
