# t (s)	mx ()	my ()	mz ()	E_exch (J)	E_anis (J)	E_demag (J)	E_Zeeman (J)	E_total (J)	dt (s)	maxTorque (T)
0	-1.6018749e-09	-3.5762786e-09	0.5072051	-1.6457083e-17	-3.1249216e-17	3.5924176e-17	-1.4022202e-17	-2.5804324e-17	1e-15	1.6348251e-06
