# ODT 1.0
# Table Start
# Title: mmArchive Data Table, Mon Jun 02 21:00:56 EDT 2025
# Columns: {Oxs_CGEvolve:evolver:Max mxHxm} {Oxs_CGEvolve:evolver:Total energy} {Oxs_CGEvolve:evolver:Delta E} {Oxs_CGEvolve:evolver:Bracket count} {Oxs_CGEvolve:evolver:Line min count} {Oxs_CGEvolve:evolver:Conjugate cycle count} {Oxs_CGEvolve:evolver:Cycle count} {Oxs_CGEvolve:evolver:Cycle sub count} {Oxs_CGEvolve:evolver:Energy calc count} Oxs_UniformExchange:exchange:Energy {Oxs_UniformExchange:exchange:Max Spin Ang} {Oxs_UniformExchange:exchange:Stage Max Spin Ang} {Oxs_UniformExchange:exchange:Run Max Spin Ang} Oxs_TwoSurfaceExchange:rkky:Energy Oxs_UniaxialAnisotropy:uniaxialanisotropy:Energy Oxs_Demag:demag:Energy Oxs_DMI_Cnv_z:dmi:Energy Oxs_MinDriver::Iteration {Oxs_MinDriver::Stage iteration} Oxs_MinDriver::Stage Oxs_MinDriver::mx    Oxs_MinDriver::my    Oxs_MinDriver::mz   
# Units:                 A/m                                 J                                J                                 {}                                   {}                                        {}                                      {}                                   {}                                      {}                                     J                                      deg                                            deg                                              deg                                       J                                         J                                   J                       J                        {}                           {}                         {}                 {}                   {}                   {}           
                  0.097342866493000002              -5.8409135967700003e-17              -1.2325951644099999e-32               1155                                 802                                       53                                      1034                                 495                                     1958                                  1.4513594673900002e-17                     29.2583161624                                  180                                              180                                      -8.4706395763699997e-17                       1.12259571431e-17                   5.9608000198099998e-18    -5.4030920407600002e-18      1863                         1863                       0                   -6.5153291805899995e-17  5.4879058903300001e-18  0.0116362874551    
# Table End
