# ODT 1.0
# Table Start
# Title: mmArchive Data Table, Tue May 20 18:27:22 EDT 2025
# Columns: {Oxs_CGEvolve:evolver:Max mxHxm} {Oxs_CGEvolve:evolver:Total energy} {Oxs_CGEvolve:evolver:Delta E} {Oxs_CGEvolve:evolver:Bracket count} {Oxs_CGEvolve:evolver:Line min count} {Oxs_CGEvolve:evolver:Conjugate cycle count} {Oxs_CGEvolve:evolver:Cycle count} {Oxs_CGEvolve:evolver:Cycle sub count} {Oxs_CGEvolve:evolver:Energy calc count} Oxs_UniformExchange:exchange:Energy {Oxs_UniformExchange:exchange:Max Spin Ang} {Oxs_UniformExchange:exchange:Stage Max Spin Ang} {Oxs_UniformExchange:exchange:Run Max Spin Ang} Oxs_Demag:demag:Energy Oxs_FixedZeeman:zeeman:Energy Oxs_MinDriver::Iteration {Oxs_MinDriver::Stage iteration} Oxs_MinDriver::Stage Oxs_MinDriver::mx    Oxs_MinDriver::my    Oxs_MinDriver::mz   
# Units:                 A/m                                 J                                J                                 {}                                   {}                                        {}                                      {}                                   {}                                      {}                                     J                                      deg                                            deg                                              deg                                 J                          J                          {}                           {}                         {}                 {}                   {}                   {}           
                  0.0997182538822                  -4.7249649985599999e-015              -7.8886090522099998e-031               44                                   20                                        17                                      37                                   20                                      65                                    8.0374411052900005e-020                     15.2856424542                                  15.608227082000001                               15.608227082000001                  1.44830846954e-015       -6.1733538424999997e-015         62                           62                         0                    0.98251977949000002 -9.1616733922299998e-010 -2.3283064365399998e-019
# Table End
