# ODT 1.0
# Table Start
# Title: mmArchive Data Table, Tue May 20 20:10:24 EDT 2025
# Columns: {Oxs_CGEvolve:evolver:Max mxHxm} {Oxs_CGEvolve:evolver:Total energy} {Oxs_CGEvolve:evolver:Delta E} {Oxs_CGEvolve:evolver:Bracket count} {Oxs_CGEvolve:evolver:Line min count} {Oxs_CGEvolve:evolver:Conjugate cycle count} {Oxs_CGEvolve:evolver:Cycle count} {Oxs_CGEvolve:evolver:Cycle sub count} {Oxs_CGEvolve:evolver:Energy calc count} Oxs_UniformExchange:exchange:Energy {Oxs_UniformExchange:exchange:Max Spin Ang} {Oxs_UniformExchange:exchange:Stage Max Spin Ang} {Oxs_UniformExchange:exchange:Run Max Spin Ang} Oxs_Demag:demag:Energy Oxs_UniaxialAnisotropy:uniaxialanisotropy:Energy Oxs_UZeeman:hysteresis:Energy Oxs_UZeeman:hysteresis:B Oxs_UZeeman:hysteresis:Bx Oxs_UZeeman:hysteresis:By Oxs_UZeeman:hysteresis:Bz Oxs_MinDriver::Iteration {Oxs_MinDriver::Stage iteration} Oxs_MinDriver::Stage Oxs_MinDriver::mx    Oxs_MinDriver::my    Oxs_MinDriver::mz   
# Units:                 A/m                                 J                                J                                 {}                                   {}                                        {}                                      {}                                   {}                                      {}                                     J                                      deg                                            deg                                              deg                                 J                                   J                                       J                          mT                       mT                        mT                        mT                        {}                           {}                         {}                 {}                   {}                   {}           
                  0.080263219469900005               1.74987889851e-016               -9.6142422823800006e-031               1096                                 714                                       1                                       903                                  902                                     1811                                  2.9848982855000002e-018                     62.6694965298                                  71.607846982799998                               71.607846982799998                  2.5508848512100002e-016                 1.77469874668e-018                    -8.4860192302699998e-017         50                       0                         0                        -50                        1598                         1598                       0                    0.94764269749399999 -5.0574526540000002e-014 -0.053037620189199997
                  0.078959489624699994               1.83049608178e-016               -1.0107280348099999e-030               1210                                 795                                       2                                       987                                  83                                      2007                                  2.98581944427e-018                      62.685541845199999                             62.696958390900001                               71.607846982799998                  2.4703542391899999e-016                 1.7651216442200001e-018                   -6.8736756829799997e-017         45                       0                         0                        -45                        1767                         168                        1                    0.94789198425400001 -1.05835279101e-013  -0.047733858909599997
                  0.099064786646400005               1.9026272472900001e-016              -3.6731335899399997e-030               1323                                 872                                       3                                       1071                                 83                                      2198                                  2.9866431893300001e-018                     62.699094448799997                             62.709343623800002                               71.607846982799998                  2.3983005422799999e-016                 1.7565520364300002e-018                   -5.43105247249e-017          40                       0                         0                        -40                        1927                         159                        2                    0.94811500226199996 -2.16544794966e-013  -0.0424300974414    
                  0.090461532794900004               1.96627239452e-016               -2.46519032882e-030                1434                                 946                                       4                                       1152                                 80                                      2384                                  2.98736979717e-018                      62.710171267                                   62.719202454799998                               71.607846982799998                  2.3347237582e-016                   1.7489905241600001e-018                   -4.1581496689300002e-017         35                       0                         0                        -35                        2077                         149                        3                    0.94831174225299997 -4.3394255044400002e-013 -0.037126336329800003
                  0.0929005657268                   2.02143152302e-016               -5.9164567891599996e-031               1536                                 1020                                      5                                       1228                                 75                                      2561                                  2.9880003117099999e-018                     62.718781630000002                             62.7267120729                                    71.607846982799998                  2.27962386161e-016                  1.7424373269300001e-018                   -3.0549671498099999e-017         30                       0                         0                        -30                        2226                         148                        4                    0.94848221316600001 -8.5651925473899996e-013 -0.031822574477200001
                  0.084233851499499995               2.0681046324099999e-016              -1.06249703172e-029                1638                                 1088                                      6                                       1302                                 73                                      2732                                  2.9885328683800001e-018                     62.724907728200002                             62.7324904739                                    71.607846982799998                  2.23300088178e-016                  1.7368923034900001e-018                   -2.1215050109599999e-017         25                       0                         0                        -25                        2363                         136                        5                    0.94862643344099995 -1.64306809893e-012  -0.026518812637000001
                  0.0444573055656                   2.1062917223500001e-016              -2.2186712959300001e-030               1736                                 1161                                      7                                       1377                                 74                                      2904                                  2.9889697169399998e-018                     62.7285983672                                  62.735133232599999                               71.607846982799998                  2.1948547937e-016                   1.7323552281999999e-018                   -1.3577632080200001e-017         20                       0                         0                        -20                        2512                         148                        6                    0.948744425542      -3.2294899574499999e-012 -0.021215050125399999
                  0.093835884999699998               2.1359927925799999e-016              -4.33873497872e-030                1824                                 1224                                      8                                       1444                                 66                                      3056                                  2.9893083824400002e-018                     62.729766588499999                             62.735657004799997                               71.607846982799998                  2.16518562211e-016                  1.72882676359e-018                    -7.6374180989299995e-018         15                       0                         0                        -15                        2638                         125                        7                    0.94883617129300002 -5.8380889822700004e-012 -0.015911287706100001
                  0.074825923305399999               2.1572078429000001e-016              -5.0782920773600001e-030               1912                                 1288                                      9                                       1511                                 66                                      3209                                  2.9895511609000002e-018                     62.728524264400001                             62.733514376099997                               71.607846982799998                  2.14399334981e-016                  1.7263062064400001e-018                   -3.3944080590699999e-018         10                       0                         0                        -10                        2768                         129                        8                    0.94890170836499999 -1.0508607883799999e-011 -0.0106075251846    
                  0.057761303537799999               2.1699368731399999e-016              -3.2293993307499997e-030               2000                                 1349                                      10                                      1575                                 63                                      3359                                  2.9896961153299999e-018                     62.7248153488                                  62.729446175299998                               71.607846982799998                  2.1312779949499999e-016                 1.7247937296800001e-018                   -8.4860202600600002e-019         5                        0                         0                        -5                         2891                         122                        9                    0.94894103348600001 -1.8421225249800001e-011 -0.0053037626625400004
                  0.090013714411400006               2.1741798832400001e-016              -3.7470892998000002e-030               2043                                 1381                                      11                                      1608                                 32                                      3435                                  2.98973663107e-018                      62.718545730300001                             62.7248153488                                    71.607846982799998                  2.1270396533100001e-016                 1.7242863619e-018                      0                           0                        0                         0                         0                         2957                         65                         10                   0.94895424675899998 -2.1186338854000001e-011 -1.68413765095e-012 
                  0.049992905335399997               2.1699368731399999e-016              -3.6731335899399997e-030               2084                                 1413                                      12                                      1641                                 32                                      3509                                  2.98970110402e-018                      62.7248982618                                  62.726599112999999                               71.607846982799998                  2.1312779312700001e-016                 1.7247951001899999e-018                   -8.4860201696399996e-019         5                        0                         0                         5                         3022                         64                         11                   0.94894098904500002 -2.3777659880600001e-011  0.0053037626060299997
                  0.097163521625699995               2.1572078429000001e-016              -3.6238297833599997e-030               2141                                 1459                                      13                                      1687                                 45                                      3613                                  2.9895612238399999e-018                     62.728662810000003                             62.730928344900001                               71.607846982799998                  2.14399323104e-016                  1.7263080177200001e-018                   -3.3944080557100002e-018         10                       0                         0                         10                        3114                         91                         12                   0.94890166285199995 -3.1787664193e-011    0.0106075251741    
                  0.089225888398799996               2.1359927925799999e-016              -4.8564249477699998e-030               2232                                 1523                                      14                                      1756                                 68                                      3769                                  2.9893096539500001e-018                     62.729835240200003                             62.732701603899997                               71.607846982799998                  2.1651856192699999e-016                 1.72882580225e-018                    -7.6374181252599995e-018         15                       0                         0                         15                        3244                         129                        13                   0.948836211052      -5.7903539200199999e-011  0.015911287760999999
                  0.098492424066800005               2.1062917223500001e-016              -5.6206339496999999e-030               2321                                 1588                                      15                                      1823                                 66                                      3924                                  2.9889709740899999e-018                     62.728645453200002                             62.731828249499998                               71.607846982799998                  2.19485478779e-016                  1.7323545395800001e-018                   -1.35776320575e-017          20                       0                         0                         20                        3379                         134                        14                   0.94874445720699996 -1.0414679200000001e-010  0.0212150500898    
                  0.076170662781699996               2.0681046324000001e-016              -8.6281661508499997e-031               2424                                 1665                                      16                                      1905                                 81                                      4105                                  2.9885336087600001e-018                     62.724915607299998                             62.728645453200002                               71.607846982799998                  2.2330008787700001e-016                 1.7368916795300001e-018                   -2.1215049925099999e-017         25                       0                         0                         25                        3537                         157                        15                   0.94862646202300005 -2.06443741627e-010   0.0265188124064    
                  0.081282885180200007               2.02143152302e-016               -3.0321841044400002e-030               2526                                 1738                                      17                                      1981                                 75                                      4281                                  2.98800102906e-018                      62.718781200099997                             62.724915607299998                               71.607846982799998                  2.2796238592300002e-016                 1.7424368128099999e-018                   -3.0549671462700001e-017         30                       0                         0                         30                        3685                         147                        16                   0.94848223857400005 -4.0504154967500002e-010  0.031822574440299997
                  0.080255567330500002               1.96627239452e-016               -3.0568360077299998e-030               2636                                 1814                                      18                                      2065                                 83                                      4468                                  2.9873705686099999e-018                     62.710171430700001                             62.718781200099997                               71.607846982799998                  2.3347237502800002e-016                 1.74899028212e-018                    -4.1581496427199999e-017         35                       0                         0                         35                        3842                         156                        17                   0.94831175719100003 -8.2889451514299996e-010  0.037126336095699999
                  0.087839222866900005               1.9026272472900001e-016              -3.89500071953e-030                2739                                 1889                                      19                                      2144                                 78                                      4647                                  2.9866438158700002e-018                     62.699100000999998                             62.710171430700001                               71.607846982799998                  2.3983005341799998e-016                 1.7565515711800001e-018                   -5.43105240765e-017          40                       0                         0                         40                        3992                         149                        18                   0.94811502603499997 -1.6438138447799999e-009  0.042430096934800002
                  0.099307750822099999               1.83049608178e-016               -3.6238297833599997e-030               2849                                 1967                                      20                                      2227                                 82                                      4836                                  2.9858200006599998e-018                     62.685571986600003                             62.699100000999998                               71.607846982799998                  2.4703542351899998e-016                 1.7651215809300001e-018                   -6.8736756922300002e-017         45                       0                         0                         45                        4147                         154                        19                   0.94789199205499997 -3.3876654478800001e-009  0.047733858973800003
                  0.080912236003100005               1.74987889851e-016               -4.9550325609200003e-030               2968                                 2047                                      21                                      2313                                 85                                      5036                                  2.98489926246e-018                      62.669593686200002                             62.685571986600003                               71.607846982799998                  2.5508848299000001e-016                 1.7746995267099999e-018                   -8.4860191928699995e-017         50                       0                         0                         50                        4311                         163                        20                   0.94764266740000003 -7.0866457388900003e-009  0.053037619955400003
                  0.080127589589100004               1.83049608178e-016               -9.8607613152600004e-032               3086                                 2132                                      22                                      2401                                 87                                      5240                                  2.9858198954800001e-018                     62.685738778100003                             62.696729508200001                               71.607846982799998                  2.4703542506899999e-016                 1.76512167119e-018                    -6.8736758457500003e-017         45                       0                         0                         45                        4480                         168                        21                   0.94789198438       -1.5030072716500001e-008  0.047733860039900003
                  0.082483589630400006               1.48083789665e-016               -1.2325951644099999e-031               5201                                 3196                                      26                                      4202                                 596                                     8420                                  9.7720422204199993e-018                     128.39959961900001                             151.13068424599999                               151.13068424599999                  1.8708618223299999e-016                 5.3572714173499999e-018                   -5.4131706205399997e-017         40                       0                         0                         40                        7305                         2824                       22                   0.82606932582399994  0.037664774559899999  0.042290395473000002
                  0.084373735460199994               1.5442734945899999e-016              -1.6023737137300002e-030               5380                                 3313                                      27                                      4334                                 131                                     8717                                  9.7752394061699998e-018                     128.43550570400001                             128.466815427                                    151.13068424599999                  1.80745494607e-016                  5.3512074802700001e-018                   -4.1444592034600003e-017         35                       0                         0                         35                        7554                         248                        23                   0.826239486666       0.037672850554500002  0.037004100030900003
                  0.088499741409400007               1.59925101286e-016               -2.2186712959300001e-030               5545                                 3429                                      28                                      4459                                 124                                     8999                                  9.7780090461300005e-018                     128.46476548499999                             128.490623368                                    151.13068424599999                  1.7525022706100001e-016                 5.3459524472799997e-018                   -3.0449087268400002e-017         30                       0                         0                         30                        7790                         235                        24                   0.82638691560400002  0.037679888784300002  0.031717799237900003
                  0.0879540183763                   1.6457704514299999e-016              -9.8607613152600004e-032               5711                                 3539                                      29                                      4580                                 120                                     9276                                  9.78035438157e-018                      128.48743715800001                             128.50873260200001                               151.13068424599999                  1.7060038388999999e-016                 5.34150628265e-018                    -2.11451994108e-017          25                       0                         0                         25                        8016                         225                        25                   0.82651163120399995  0.037685820969799999  0.0264314992635    
                  0.059642779091300002               1.6838318102900001e-016              -1.0353799381e-030                 5877                                 3648                                      30                                      4701                                 120                                     9552                                  9.7822719700699999e-018                     128.503502986                                  128.52083808200001                               151.13068424599999                  1.66795968477e-016                  5.3378681338199998e-018                   -1.3532927551400001e-017         20                       0                         0                         20                        8238                         221                        26                   0.82661367080799997  0.037690669518300003  0.021145199299100002
                  0.061745653141200001               1.7134350894199999e-016              -1.3312027775600001e-030               5979                                 3720                                      31                                      4778                                 76                                      9727                                  9.7837349949500003e-018                     128.512850241                                  128.52607287399999                               151.13068424599999                  1.6383701963599999e-016                 5.3350261278099998e-018                   -7.6122718164800004e-018         15                       0                         0                         15                        8387                         148                        27                   0.82669342724200001  0.037694502240600003  0.015858899617700001
                  0.074518630014299994               1.7345802888099999e-016              -9.3677232495000004e-031               6129                                 3821                                      32                                      4892                                 113                                     9979                                  9.7848302493700006e-018                     128.515828508                                  128.52450526999999                               151.13068424599999                  1.61723412689e-016                  5.33301781797e-018                    -3.3832318752499998e-018         10                       0                         0                         10                        8602                         214                        28                   0.82674968415000005  0.037697131565       0.0105725996102    
                  0.080603213044700001               1.7472674084399999e-016              -2.908924588e-030                  6196                                 3871                                      33                                      4943                                 50                                      10097                                 9.7854485462899995e-018                     128.512005773                                  128.518459869                                    151.13068424599999                  1.6045530458600001e-016                 5.3317956875800001e-018                   -8.4580797563199997e-019         5                        0                         0                         5                         8704                         101                        29                   0.82678400509000005  0.037698708132199998  0.0052862998477    
                  0.093739602087200002               1.75149644832e-016               -6.2369315319000001e-030               6238                                 3902                                      34                                      4976                                 32                                      10171                                 9.7856548418100007e-018                     128.50812231099999                             128.512005773                                    151.13068424599999                  1.6003260190499999e-016                 5.3313880853699999e-018                    0                           0                        0                         0                         0                         8770                         65                         30                   0.82679545644399999  0.037699243798900002  1.9206655406399998e-012