# ODT 1.0
# Table Start
# Title: mmArchive Data Table, Tue Jun 03 14:07:20 EDT 2025
# Columns: {Oxs_CGEvolve:evolver:Max mxHxm} {Oxs_CGEvolve:evolver:Total energy} {Oxs_CGEvolve:evolver:Delta E} {Oxs_CGEvolve:evolver:Bracket count} {Oxs_CGEvolve:evolver:Line min count} {Oxs_CGEvolve:evolver:Conjugate cycle count} {Oxs_CGEvolve:evolver:Cycle count} {Oxs_CGEvolve:evolver:Cycle sub count} {Oxs_CGEvolve:evolver:Energy calc count} Oxs_UniformExchange:exchange:Energy {Oxs_UniformExchange:exchange:Max Spin Ang} {Oxs_UniformExchange:exchange:Stage Max Spin Ang} {Oxs_UniformExchange:exchange:Run Max Spin Ang} Oxs_TwoSurfaceExchange:rkky:Energy Oxs_UniaxialAnisotropy:uniaxialanisotropy:Energy Oxs_Demag:demag:Energy Oxs_DMI_Cnv_z:dmi:Energy Oxs_MinDriver::Iteration {Oxs_MinDriver::Stage iteration} Oxs_MinDriver::Stage Oxs_MinDriver::mx    Oxs_MinDriver::my    Oxs_MinDriver::mz   
# Units:                 A/m                                 J                                J                                 {}                                   {}                                        {}                                      {}                                   {}                                      {}                                     J                                      deg                                            deg                                              deg                                       J                                         J                                   J                       J                        {}                           {}                         {}                 {}                   {}                   {}           
                  0.093885457194400002               3.5522444563400001e-17               0                                 2799                                 1829                                      18                                      2769                                 232                                     4629                                  1.1340432392599999e-17                     9.2729196536200007                             180                                              180                                      -8.4564680565400001e-17                       4.5536054236400003e-17                 8.1223055113099995e-17    -1.8012416613199999e-17      4603                         4603                       0                    8.2440390243500003e-18 -2.74395294516e-17   -0.00984498144228   
# Table End
