# ODT 1.0
# Table Start
# Title: mmArchive Data Table, Tue May 20 20:14:46 EDT 2025
# Columns: {Oxs_CGEvolve:evolver:Max mxHxm} {Oxs_CGEvolve:evolver:Total energy} {Oxs_CGEvolve:evolver:Delta E} {Oxs_CGEvolve:evolver:Bracket count} {Oxs_CGEvolve:evolver:Line min count} {Oxs_CGEvolve:evolver:Conjugate cycle count} {Oxs_CGEvolve:evolver:Cycle count} {Oxs_CGEvolve:evolver:Cycle sub count} {Oxs_CGEvolve:evolver:Energy calc count} Oxs_UniformExchange:exchange:Energy {Oxs_UniformExchange:exchange:Max Spin Ang} {Oxs_UniformExchange:exchange:Stage Max Spin Ang} {Oxs_UniformExchange:exchange:Run Max Spin Ang} Oxs_Demag:demag:Energy Oxs_UniaxialAnisotropy:uniaxialanisotropy:Energy Oxs_UZeeman:hysteresis:Energy Oxs_UZeeman:hysteresis:B Oxs_UZeeman:hysteresis:Bx Oxs_UZeeman:hysteresis:By Oxs_UZeeman:hysteresis:Bz Oxs_MinDriver::Iteration {Oxs_MinDriver::Stage iteration} Oxs_MinDriver::Stage Oxs_MinDriver::mx    Oxs_MinDriver::my    Oxs_MinDriver::mz   
# Units:                 A/m                                 J                                J                                 {}                                   {}                                        {}                                      {}                                   {}                                      {}                                     J                                      deg                                            deg                                              deg                                 J                                   J                                       J                          mT                       mT                        mT                        mT                        {}                           {}                         {}                 {}                   {}                   {}           
                  0.074454870976700005              -1.35482773368e-015               -1.77493703675e-030                1144                                 744                                       41                                      850                                  309                                     1889                                  2.2052045947300002e-019                     10.922407808699999                             179.998531636                                    179.998531636                       2.40876467826e-016                  9.8579725734300004e-020                   -1.59602330169e-015          50                      -50                        0                         0                         1577                         1577                       0                   -0.99751456355699997 -3.00273519394e-007  -3.5405289099599999e-009
                  0.073393718545699996              -1.1952800826300001e-015              -1.1832913578299999e-030               1284                                 839                                       42                                      953                                  102                                     2125                                  2.5058797178900001e-019                     12.6375065832                                  12.9472259669                                    179.998531636                       2.3971273038199998e-016                 1.27207180145e-019                    -1.4353706081600001e-015         45                      -45                        0                         0                         1766                         188                        1                   -0.99678514455599998 -2.0387181764899999e-007  1.3666567845099999e-010
                  0.076174577761899995              -1.0358751798199999e-015              -3.5498740734900003e-030               1433                                 937                                       43                                      1058                                 104                                     2373                                  2.9724285130799999e-019                     14.8593121135                                  15.354927202900001                               179.998531636                       2.3815739439100001e-016                 1.69442131454e-019                    -1.2744992592e-015           40                      -40                        0                         0                         1958                         191                        2                   -0.99570254624700005 -2.5094517010500001e-007  5.0417497196600001e-010
                  0.088603853003900002              -8.7765883423699999e-016              -1.97215226305e-031                2498                                 1605                                      46                                      1860                                 460                                     4107                                  6.6665098307399995e-019                     32.156484102100002                             33.867143901799999                               179.998531636                       2.24525236887e-016                  5.5987802252199999e-019                   -1.1034106001299999e-015         35                      -35                        0                         0                         3379                         1420                       3                   -0.98518803583000003 -0.0551413295336     -3.62117006291e-010 
                  0.073780273988499998              -7.2069875297600003e-016              -1.77493703675e-030                2905                                 1877                                      47                                      2164                                 303                                     4787                                  9.7867650614600005e-019                     39.444799417299997                             40.827607444199998                               179.998531636                       2.1514960770000001e-016                 8.5656856909199999e-019                   -9.3768360575200002e-016         30                      -30                        0                         0                         3932                         552                        4                   -0.97675375599100001 -0.070867852956600003  3.15812367094e-009 
                  0.092143712588600005              -5.6512155866999995e-016              -2.0707598762099999e-030               3238                                 2103                                      48                                      2422                                 257                                     5347                                  1.3334572227e-018                       46.687144609400001                             47.286397063700001                               179.998531636                       2.06680003498e-016                  1.1547561775800001e-018                   -7.7428977556899999e-016         25                      -25                        0                         0                         4395                         462                        5                   -0.96786221946100004 -0.081497929149800002 -2.7532860023299999e-009
                  0.0998606620922                  -4.1103184741299999e-016              -2.7117093616999998e-030               3497                                 2281                                      49                                      2613                                 190                                     5785                                  1.7918297709600001e-018                     54.647171852600003                             54.647198814399999                               179.998531636                       1.9882931376400001e-016                 1.47136270895e-018                    -6.1312435365600002e-016         20                      -20                        0                         0                         4744                         348                        6                   -0.95800680258799997 -0.087059506766700004 -2.8640489378599999e-009
                  0.085024013413999996              -2.5872732070500002e-016              -2.9582283945799998e-031               3902                                 2538                                      50                                      2920                                 306                                     6448                                  2.5833881264100002e-018                     67.241424481699994                             67.4940215739                                    179.998531636                       1.9029621657999999e-016                 1.8877343855400002e-018                   -4.5349465979700001e-016         15                      -15                        0                         0                         5291                         546                        7                   -0.94478054124300004 -0.083994588122900005 -1.55912272417e-010 
                  0.068998099308999999              -1.09207742504e-016               -2.4528643771700001e-030               4336                                 2831                                      51                                      3244                                 323                                     7176                                  4.0483491348500003e-018                     85.247982113800006                             86.322500797399996                               179.998531636                       1.79394864833e-016                  2.57607352779e-018                    -2.9522703000000001e-016         10                      -10                        0                         0                         5883                         591                        8                   -0.92258446874900002 -0.072288749013800002  6.1678548306599997e-010
                  0.097733658115899999               3.6136705720400002e-017              -1.1956173094799999e-030               4822                                 3153                                      52                                      3617                                 372                                     7985                                  5.89005214181e-018                      102.915822553                                  103.250749992                                    179.998531636                       1.69756102265e-016                  3.4223358740400001e-018                   -1.42931784561e-016          5                       -5                         0                         0                         6554                         670                        9                   -0.893323653504      -0.0653232383685     -3.4826847242200002e-009
                  0.095148797106700003               1.7456418458699999e-016              -2.7117093617e-031                 6016                                 3691                                      54                                      4629                                 274                                     9718                                  1.1317897767500001e-017                     128.58729967799999                             134.43650550699999                               179.998531636                       1.5779575004e-016                   5.4505367797099998e-018                    0                           0                        0                         0                         0                         8074                         1519                       10                  -0.82269401469900005 -0.085508881448700003 -4.0421125375899997e-009
                  0.0874608595062                   1.8005320649099999e-016              -2.4405384255299999e-030               7360                                 4428                                      57                                      5699                                 489                                     11800                                 3.7968042043599998e-017                     179.40906412699999                             179.99621563599999                               179.998531636                       1.07356297882e-016                  4.2888165788599998e-018                    3.0440049986700001e-017         5                        5                         0                         0                         9818                         1743                       11                  -0.19025031241699999 -0.048849463255600002  8.7060851562899998e-010
                  0.085693325198000006               2.0899282354199999e-016              -4.9303806576300004e-031               8046                                 4868                                      58                                      6244                                 544                                     12927                                 3.7859460867400001e-017                     179.13394170199999                             179.58345980000001                               179.998531636                       1.11916461444e-016                  4.5942678828799997e-018                    5.4622633348099997e-017         10                       10                        0                         0                         10774                        955                        12                  -0.170695729213      -0.038182735482999997 -4.2204075232899997e-009
                  0.082526412387700004              -8.8845233264700006e-017              -1.29422492263e-030                10448                                6230                                      66                                      8302                                 71                                      16692                                 3.9270952084900001e-017                     179.86552821699999                             179.99988261300001                               179.99988261300001                  1.4789401496099999e-016                 1.3803745849500001e-018                   -2.7739057489599998e-016         15                       15                        0                         0                         14140                        3365                       13                   0.57789703103300005 -5.9163215217200003e-007 -3.13716377755e-009 
                  0.071168917666500006              -1.8164834747999999e-016              -2.0214560696299999e-030               10601                                6335                                      67                                      8413                                 110                                     16951                                 3.9213656851500001e-017                     179.86926239799999                             179.872916946                                    179.99988261300001                  1.5038362681600001e-016                 1.2682756217599999e-018                   -3.7251390677e-016           20                       20                        0                         0                         14349                        208                        14                   0.58205297932800004 -3.9425133915200002e-007 -2.1337433055700001e-009
                  0.086249399293599996              -2.7507526337000002e-016              -1.0353799381e-029                 10738                                6433                                      68                                      8514                                 100                                     17187                                 3.9164292210399999e-017                     179.87190132500001                             179.874941922                                    179.99988261300001                  1.5315113322100001e-016                 1.1733091853900001e-018                   -4.6856399798800004e-016         25                       25                        0                         0                         14544                        194                        15                   0.58570499748500005 -2.06979275291e-007   9.9291163068699995e-009
                  0.0692190323134                  -3.69051119746e-016               -2.0707598762099999e-030               10889                                6535                                      69                                      8625                                 110                                     17441                                 3.9109477416500001e-017                     179.87375902299999                             179.88918789499999                               179.99988261300001                  1.5611445187e-016                   1.0978331193000001e-018                   -5.6537288215199996e-016         30                       30                        0                         0                         14758                        213                        16                   0.58893008557500004 -7.6674640651099994e-008  1.15504910276e-009 
                  0.091933601850999996              -4.6351597836900002e-016              -2.9582283945800001e-030               11052                                6647                                      70                                      8744                                 118                                     17717                                 3.9033031007499997e-017                     179.87515964100001                             179.87734290700001                               179.99988261300001                  1.5926715462999999e-016                 1.04449854634e-018                    -6.6286066255299998e-016         35                       35                        0                         0                         14979                        220                        17                   0.591839877279      -1.7640870466000001e-008 -2.7575085182799999e-009
                  0.095172541567299998              -5.5843199757599996e-016              -3.8456969129499999e-030               11200                                6755                                      71                                      8855                                 110                                     17974                                 3.8911090426399997e-017                     179.87645080799999                             179.88469072500001                               179.99988261300001                  1.62735347305e-016                  1.01776143988e-018                    -7.61096196747e-016          40                       40                        0                         0                         15193                        213                        18                   0.59460640370899998 -3.2639965951200001e-009 -2.8110472918199999e-009
                  0.098035088009400001              -6.5379978121499995e-016              -9.8607613152600009e-031               11386                                6886                                      72                                      8999                                 143                                     18292                                 3.8693217904799998e-017                     179.87833406499999                             179.88611164599999                               179.99988261300001                  1.66987061546e-016                  1.0292480785899999e-018                   -8.6050930874499998e-016         45                       45                        0                         0                         15457                        263                        19                   0.59757590885       -1.37351538506e-010  -2.3234433390600002e-009
                  0.092695516737099998              -7.4973995559299999e-016              -3.9443045261100004e-031               11807                                7167                                      73                                      9318                                 318                                     18995                                 3.8106750500799999e-017                     179.88379635000001                             179.89158265200001                               179.99988261300001                  1.7513507475400001e-016                 1.14985482587e-018                    -9.6413163567400005e-016         50                       50                        0                         0                         16035                        577                        20                   0.60258227229600003 -1.05597056972e-012   1.60722968303e-012 
                  0.070756282511700005              -6.5379978121499995e-016              -2.5637979419700001e-030               12071                                7346                                      74                                      9513                                 194                                     19439                                 3.8693215254700001e-017                     179.87829237899999                             179.91440111899999                               179.99988261300001                  1.6698707782199999e-016                 1.0292491423500001e-018                   -8.6050932343500003e-016         45                       45                        0                         0                         16393                        357                        21                   0.59757591905200003  1.0129298607399999e-012  3.86564922376e-009 
                  0.065364583832199993              -5.5843199757599996e-016              -8.8746851837399999e-031               12249                                7468                                      75                                      9648                                 134                                     19740                                 3.8911087725200001e-017                     179.876449009                                  179.88080752499999                               179.99988261300001                  1.62735349832e-016                  1.0177624343900001e-018                   -7.61096197567e-016          40                       40                        0                         0                         16640                        246                        22                   0.59460640434900003  8.8453642092600002e-013 -2.8285469984199998e-010
                  0.080749385462199993              -4.6351597836900002e-016              -9.8607613152600009e-031               12407                                7580                                      76                                      9764                                 115                                     20011                                 3.9033035012900001e-017                     179.875165716                                  179.87888049200001                               179.99988261300001                  1.5926714740499999e-016                 1.0444971726400001e-018                   -6.6286065796000005e-016         35                       35                        0                         0                         16858                        217                        23                   0.59183987317800002 -4.5082189899400002e-013  1.16739531655e-009 
                  0.0982443583989                  -3.69051119746e-016               -3.7470892998000002e-030               12551                                7682                                      77                                      9871                                 106                                     20258                                 3.9109477821900003e-017                     179.87377870700001                             179.87586175000001                               179.99988261300001                  1.5611444983000001e-016                 1.09783286065e-018                    -5.6537288025900002e-016         30                       30                        0                         0                         17058                        199                        24                   0.58893008360300003 -1.0761565499699999e-012 -2.8072523991300001e-009
                  0.072712435983800006              -2.7507526337000002e-016              -1.6270256170199998e-030               12710                                7795                                      78                                      9988                                 116                                     20531                                 3.9164293321100001e-017                     179.871924245                                  179.87878639900001                               179.99988261300001                  1.53151148008e-016                  1.17330801382e-018                    -4.6856401271400005e-016         25                       25                        0                         0                         17282                        223                        25                   0.58570501589199997 -3.8626264722599998e-012  4.0729610724499998e-009
                  0.087294904563500003              -1.8164834747999999e-016              -4.9303806576300004e-031               12853                                7896                                      79                                      10097                                108                                     20776                                 3.9213656825e-017                       179.86930874500001                             179.87250971899999                               179.99988261300001                  1.5038362457699999e-016                 1.26827565074e-018                    -3.7251390453300001e-016         20                       20                        0                         0                         17484                        201                        26                   0.582052975832      -6.2666301528199997e-012 -2.34083746143e-010 
                  0.084966533981199993              -8.8845233265099995e-017              -2.6624055551200001e-030               13008                                8007                                      80                                      10215                                117                                     21043                                 3.9270953155200001e-017                     179.865546131                                  179.87183467899999                               179.99988261300001                  1.4789401224499999e-016                 1.3803743860799999e-018                   -2.7739057305100002e-016         15                       15                        0                         0                         17709                        224                        27                   0.57789702719000002  3.4169154969300001e-012  4.1516754896499999e-009
                  0.097200675338599996               3.2490527143599999e-018              -4.4681574709800004e-031               13180                                8125                                      81                                      10343                                127                                     21334                                 3.9348722666099997e-017                     179.860239463                                  179.86769138099999                               179.99988261300001                  1.45812710503e-016                  1.5070380035100001e-018                   -1.83419418459e-016          10                       10                        0                         0                         17953                        243                        28                   0.57318568268299996 -1.56616442837e-012   6.58325708889e-011 
                  0.097628317441899995               9.4542559849200005e-017              -7.3339412282300007e-030               13353                                8249                                      82                                      10472                                128                                     21632                                 3.9460415407999998e-017                     179.852804058                                  179.860239463                                    179.99988261300001                  1.4429744951999999e-016                 1.64564153079e-018                    -9.08609466093e-017          5                        5                         0                         0                         18199                        245                        29                   0.56788091630799997  9.1295623860799998e-013 -4.47874841487e-009 
                  0.0981110795772                   1.84936345112e-016               -2.9582283945800001e-030               13563                                8392                                      83                                      10626                                153                                     21986                                 3.9624833156099999e-017                     179.84194514999999                             179.852804058                                    179.99988261300001                  1.4351693214499999e-016                 1.7945798105300002e-018                    0                           0                        0                         0                         0                         18486                        286                        30                   0.56192345226999996  1.06185150798e-012  -3.2765745289299998e-009